
Host: MacBook-Air-5.modem

Timers On : Wed Oct 11 11:51:52 2023
Timers Off: Wed Oct 11 11:52:20 2023

Wall Time:       28.56 seconds

                                                       Time (seconds)
Module                                       User      System        Wall        Calls

--------------------------------------------------------------------------------------

**************************************************************************************
